2
Lattice="0.0 2.7925 2.7925 2.7925 0.0 2.7925 2.7925 2.7925 0.0" Properties=species:S:1:pos:R:3 energy=-108781.33395857112 Z=47.0 period=5.0 IP=-8.0580997467 EA=-1.6665999889399998 E_HOMO=-4.71000003815 E_LUMO=-0.47900000214599997 r_s=1.32000005245 r_p=1.87999999523 r_d=2.97000002861 pbc="T T T"
Ag       0.00000000       0.00000000       0.00000000 
Br       2.79250000       2.79250000       2.79250000 
2
Lattice="0.0 2.6775 2.6775 2.6775 0.0 2.6775 2.6775 2.6775 0.0" Properties=species:S:1:pos:R:3 energy=-79397.45108274152 Z=47.0 period=5.0 IP=-8.0580997467 EA=-1.6665999889399998 E_HOMO=-4.71000003815 E_LUMO=-0.47900000214599997 r_s=1.32000005245 r_p=1.87999999523 r_d=2.97000002861 pbc="T T T"
Ag       0.00000000       0.00000000       0.00000000 
Cl       2.67750000       2.67750000       2.67750000 
2
Lattice="0.0 2.3955 2.3955 2.3955 0.0 2.3955 2.3955 2.3955 0.0" Properties=species:S:1:pos:R:3 energy=-74477.4281651636 Z=47.0 period=5.0 IP=-8.0580997467 EA=-1.6665999889399998 E_HOMO=-4.71000003815 E_LUMO=-0.47900000214599997 r_s=1.32000005245 r_p=1.87999999523 r_d=2.97000002861 pbc="T T T"
Ag       0.00000000       0.00000000       0.00000000 
F       2.39550000       2.39550000       2.39550000 
2
Lattice="0.0 2.9485 2.9485 2.9485 0.0 2.9485 2.9485 2.9485 0.0" Properties=species:S:1:pos:R:3 energy=-171339.20818144767 Z=47.0 period=5.0 IP=-8.0580997467 EA=-1.6665999889399998 E_HOMO=-4.71000003815 E_LUMO=-0.47900000214599997 r_s=1.32000005245 r_p=1.87999999523 r_d=2.97000002861 pbc="T T T"
Ag       0.00000000       0.00000000       0.00000000 
I       2.94850000       2.94850000       2.94850000 
2
Lattice="0.0 2.6060000000000003 2.6060000000000003 2.6060000000000003 0.0 2.6060000000000003 2.6060000000000003 2.6060000000000003 0.0" Properties=species:S:1:pos:R:3 energy=-34200.07751274624 Z=13.0 period=3.0 IP=-5.78049993515 EA=-0.3125 E_HOMO=-2.7839999198900003 E_LUMO=0.6949999928470001 r_s=1.09000003338 r_p=1.38999998569 r_d=1.94000005722 pbc="T T T"
Al       0.00000000       0.00000000       0.00000000 
As       2.60600000       2.60600000       2.60600000 
2
Lattice="0.0 2.0045 2.0045 2.0045 0.0 2.0045 2.0045 2.0045 0.0" Properties=species:S:1:pos:R:3 energy=-4036.4290485037673 Z=13.0 period=3.0 IP=-5.78049993515 EA=-0.3125 E_HOMO=-2.7839999198900003 E_LUMO=0.6949999928470001 r_s=1.09000003338 r_p=1.38999998569 r_d=1.94000005722 pbc="T T T"
Al       0.00000000       0.00000000       0.00000000 
N       2.00450000       2.00450000       2.00450000 
2
Lattice="0.0 2.4990000000000006 2.4990000000000006 2.4990000000000006 0.0 2.4990000000000006 2.4990000000000006 2.4990000000000006 0.0" Properties=species:S:1:pos:R:3 energy=-7940.862745223371 Z=13.0 period=3.0 IP=-5.78049993515 EA=-0.3125 E_HOMO=-2.7839999198900003 E_LUMO=0.6949999928470001 r_s=1.09000003338 r_p=1.38999998569 r_d=1.94000005722 pbc="T T T"
Al       0.00000000       0.00000000       0.00000000 
P       2.49900000       2.49900000       2.49900000 
2
Lattice="0.0 2.824 2.824 2.824 0.0 2.824 2.824 2.824 0.0" Properties=species:S:1:pos:R:3 energy=-92644.19200438487 Z=13.0 period=3.0 IP=-5.78049993515 EA=-0.3125 E_HOMO=-2.7839999198900003 E_LUMO=0.6949999928470001 r_s=1.09000003338 r_p=1.38999998569 r_d=1.94000005722 pbc="T T T"
Al       0.00000000       0.00000000       0.00000000 
Sb       2.82400000       2.82400000       2.82400000 
2
Lattice="0.0 2.627 2.627 2.627 0.0 2.627 2.627 2.627 0.0" Properties=species:S:1:pos:R:3 energy=-57457.67995787478 Z=31.0 period=4.0 IP=-5.81820011139 EA=-0.10809999704399999 E_HOMO=-2.73200011253 E_LUMO=0.129999995232 r_s=0.9900000095370001 r_p=1.33000004292 r_d=2.16000008583 pbc="T T T"
Ga       0.00000000       0.00000000       0.00000000 
As       2.62700000       2.62700000       2.62700000 
2
Lattice="0.0 2.2695 2.2695 2.2695 0.0 2.2695 2.2695 2.2695 0.0" Properties=species:S:1:pos:R:3 energy=-31239.347344138314 Z=5.0 period=2.0 IP=-8.18999958038 EA=-0.107400000095 E_HOMO=-3.71499991417 E_LUMO=2.24799990654 r_s=0.8100000023839999 r_p=0.829999983311 r_d=1.9500000476800001 pbc="T T T"
B       0.00000000       0.00000000       0.00000000 
As       2.26950000       2.26950000       2.26950000 
2
Lattice="0.0 1.7310000000000003 1.7310000000000003 1.7310000000000003 0.0 1.7310000000000003 1.7310000000000003 1.7310000000000003 0.0" Properties=species:S:1:pos:R:3 energy=-1075.0334152931262 Z=5.0 period=2.0 IP=-8.18999958038 EA=-0.107400000095 E_HOMO=-3.71499991417 E_LUMO=2.24799990654 r_s=0.8100000023839999 r_p=0.829999983311 r_d=1.9500000476800001 pbc="T T T"
B       0.00000000       0.00000000       0.00000000 
N       1.73100000       1.73100000       1.73100000 
2
Lattice="0.0 2.13 2.13 2.13 0.0 2.13 2.13 2.13 0.0" Properties=species:S:1:pos:R:3 energy=-4980.2724198777205 Z=5.0 period=2.0 IP=-8.18999958038 EA=-0.107400000095 E_HOMO=-3.71499991417 E_LUMO=2.24799990654 r_s=0.8100000023839999 r_p=0.829999983311 r_d=1.9500000476800001 pbc="T T T"
B       0.00000000       0.00000000       0.00000000 
P       2.13000000       2.13000000       2.13000000 
2
Lattice="0.0 2.4655 2.4655 2.4655 0.0 2.4655 2.4655 2.4655 0.0" Properties=species:S:1:pos:R:3 energy=-89683.61370141403 Z=5.0 period=2.0 IP=-8.18999958038 EA=-0.107400000095 E_HOMO=-3.71499991417 E_LUMO=2.24799990654 r_s=0.8100000023839999 r_p=0.829999983311 r_d=1.9500000476800001 pbc="T T T"
B       0.00000000       0.00000000       0.00000000 
Sb       2.46550000       2.46550000       2.46550000 
2
Lattice="0.0 2.718 2.718 2.718 0.0 2.718 2.718 2.718 0.0" Properties=species:S:1:pos:R:3 energy=-113504.82696334521 Z=56.0 period=6.0 IP=-5.515699863430001 EA=0.277999997139 E_HOMO=-3.3459999561299996 E_LUMO=-2.1289999484999997 r_s=2.15000009537 r_p=2.63000011444 r_d=1.35000002384 pbc="T T T"
Ba       0.00000000       0.00000000       0.00000000 
O       2.71800000       2.71800000       2.71800000 
2
Lattice="0.0 3.1355000000000004 3.1355000000000004 3.1355000000000004 0.0 3.1355000000000004 3.1355000000000004 3.1355000000000004 0.0" Properties=species:S:1:pos:R:3 energy=-117910.27093993322 Z=56.0 period=6.0 IP=-5.515699863430001 EA=0.277999997139 E_HOMO=-3.3459999561299996 E_LUMO=-2.1289999484999997 r_s=2.15000009537 r_p=2.63000011444 r_d=1.35000002384 pbc="T T T"
Ba       0.00000000       0.00000000       0.00000000 
S       3.13550000       3.13550000       3.13550000 
2
Lattice="0.0 3.2375 3.2375 3.2375 0.0 3.2375 3.2375 3.2375 0.0" Properties=species:S:1:pos:R:3 energy=-145716.76967211007 Z=56.0 period=6.0 IP=-5.515699863430001 EA=0.277999997139 E_HOMO=-3.3459999561299996 E_LUMO=-2.1289999484999997 r_s=2.15000009537 r_p=2.63000011444 r_d=1.35000002384 pbc="T T T"
Ba       0.00000000       0.00000000       0.00000000 
Se       3.23750000       3.23750000       3.23750000 
2
Lattice="0.0 3.4310000000000005 3.4310000000000005 3.4310000000000005 0.0 3.4310000000000005 3.4310000000000005 3.4310000000000005 0.0" Properties=species:S:1:pos:R:3 energy=-206204.2290453692 Z=56.0 period=6.0 IP=-5.515699863430001 EA=0.277999997139 E_HOMO=-3.3459999561299996 E_LUMO=-2.1289999484999997 r_s=2.15000009537 r_p=2.63000011444 r_d=1.35000002384 pbc="T T T"
Ba       0.00000000       0.00000000       0.00000000 
Te       3.43100000       3.43100000       3.43100000 
2
Lattice="0.0 1.792 1.792 1.792 0.0 1.792 1.792 1.792 0.0" Properties=species:S:1:pos:R:3 energy=-1218.439958463514 Z=4.0 period=2.0 IP=-9.459400177000001 EA=0.630500018597 E_HOMO=-5.599999904630001 E_LUMO=-2.0980000495900004 r_s=1.08000004292 r_p=1.21000003815 r_d=2.88000011444 pbc="T T T"
Be       0.00000000       0.00000000       0.00000000 
O       1.79200000       1.79200000       1.79200000 
2
Lattice="0.0 2.2785 2.2785 2.2785 0.0 2.2785 2.2785 2.2785 0.0" Properties=species:S:1:pos:R:3 energy=-5622.515539493347 Z=4.0 period=2.0 IP=-9.459400177000001 EA=0.630500018597 E_HOMO=-5.599999904630001 E_LUMO=-2.0980000495900004 r_s=1.08000004292 r_p=1.21000003815 r_d=2.88000011444 pbc="T T T"
Be       0.00000000       0.00000000       0.00000000 
S       2.27850000       2.27850000       2.27850000 
2
Lattice="0.0 2.417 2.417 2.417 0.0 2.417 2.417 2.417 0.0" Properties=species:S:1:pos:R:3 energy=-33428.79676209965 Z=4.0 period=2.0 IP=-9.459400177000001 EA=0.630500018597 E_HOMO=-5.599999904630001 E_LUMO=-2.0980000495900004 r_s=1.08000004292 r_p=1.21000003815 r_d=2.88000011444 pbc="T T T"
Be       0.00000000       0.00000000       0.00000000 
Se       2.41700000       2.41700000       2.41700000 
2
Lattice="0.0 2.6335 2.6335 2.6335 0.0 2.6335 2.6335 2.6335 0.0" Properties=species:S:1:pos:R:3 energy=-93916.10418609559 Z=4.0 period=2.0 IP=-9.459400177000001 EA=0.630500018597 E_HOMO=-5.599999904630001 E_LUMO=-2.0980000495900004 r_s=1.08000004292 r_p=1.21000003815 r_d=2.88000011444 pbc="T T T"
Be       0.00000000       0.00000000       0.00000000 
Te       2.63350000       2.63350000       2.63350000 
2
Lattice="0.0 1.748 1.748 1.748 0.0 1.748 1.748 1.748 0.0" Properties=species:S:1:pos:R:3 energy=-1026.5488202746917 Z=6.0 period=2.0 IP=-10.851699829100001 EA=-0.87239998579 E_HOMO=-5.415999889369999 E_LUMO=1.99199998379 r_s=0.6399999856949999 r_p=0.629999995232 r_d=1.62999999523 pbc="T T T"
C       0.00000000       0.00000000       0.00000000 
C       1.74800000       1.74800000       1.74800000 
2
Lattice="0.0 2.355 2.355 2.355 0.0 2.355 2.355 2.355 0.0" Properties=species:S:1:pos:R:3 energy=-10276.90108522353 Z=20.0 period=4.0 IP=-6.4279999733 EA=0.303900003433 E_HOMO=-3.8640000820199996 E_LUMO=-2.132999897 r_s=1.7599999904599997 r_p=2.31999993324 r_d=0.6800000071529999 pbc="T T T"
Ca       0.00000000       0.00000000       0.00000000 
O       2.35500000       2.35500000       2.35500000 
2
Lattice="0.0 2.7825000000000006 2.7825000000000006 2.7825000000000006 0.0 2.7825000000000006 2.7825000000000006 2.7825000000000006 0.0" Properties=species:S:1:pos:R:3 energy=-14681.946741034999 Z=20.0 period=4.0 IP=-6.4279999733 EA=0.303900003433 E_HOMO=-3.8640000820199996 E_LUMO=-2.132999897 r_s=1.7599999904599997 r_p=2.31999993324 r_d=0.6800000071529999 pbc="T T T"
Ca       0.00000000       0.00000000       0.00000000 
S       2.78250000       2.78250000       2.78250000 
2
Lattice="0.0 2.8965 2.8965 2.8965 0.0 2.8965 2.8965 2.8965 0.0" Properties=species:S:1:pos:R:3 energy=-42488.3529202005 Z=20.0 period=4.0 IP=-6.4279999733 EA=0.303900003433 E_HOMO=-3.8640000820199996 E_LUMO=-2.132999897 r_s=1.7599999904599997 r_p=2.31999993324 r_d=0.6800000071529999 pbc="T T T"
Ca       0.00000000       0.00000000       0.00000000 
Se       2.89650000       2.89650000       2.89650000 
2
Lattice="0.0 3.1045 3.1045 3.1045 0.0 3.1045 3.1045 3.1045 0.0" Properties=species:S:1:pos:R:3 energy=-102975.69611891978 Z=20.0 period=4.0 IP=-6.4279999733 EA=0.303900003433 E_HOMO=-3.8640000820199996 E_LUMO=-2.132999897 r_s=1.7599999904599997 r_p=2.31999993324 r_d=0.6800000071529999 pbc="T T T"
Ca       0.00000000       0.00000000       0.00000000 
Te       3.10450000       3.10450000       3.10450000 
2
Lattice="0.0 2.318 2.318 2.318 0.0 2.318 2.318 2.318 0.0" Properties=species:S:1:pos:R:3 energy=-78015.16830946339 Z=48.0 period=5.0 IP=-9.5813999176 EA=0.838699996471 E_HOMO=-5.952000141139999 E_LUMO=-1.30900001526 r_s=1.23000001907 r_p=1.7400000095400003 r_d=2.59999990463 pbc="T T T"
Cd       0.00000000       0.00000000       0.00000000 
O       2.31800000       2.31800000       2.31800000 
2
Lattice="0.0 2.6685000000000003 2.6685000000000003 2.6685000000000003 0.0 2.6685000000000003 2.6685000000000003 2.6685000000000003 0.0" Properties=species:S:1:pos:R:3 energy=-82420.56336174316 Z=48.0 period=5.0 IP=-9.5813999176 EA=0.838699996471 E_HOMO=-5.952000141139999 E_LUMO=-1.30900001526 r_s=1.23000001907 r_p=1.7400000095400003 r_d=2.59999990463 pbc="T T T"
Cd       0.00000000       0.00000000       0.00000000 
S       2.66850000       2.66850000       2.66850000 
2
Lattice="0.0 2.7815000000000003 2.7815000000000003 2.7815000000000003 0.0 2.7815000000000003 2.7815000000000003 2.7815000000000003 0.0" Properties=species:S:1:pos:R:3 energy=-110227.06126082806 Z=48.0 period=5.0 IP=-9.5813999176 EA=0.838699996471 E_HOMO=-5.952000141139999 E_LUMO=-1.30900001526 r_s=1.23000001907 r_p=1.7400000095400003 r_d=2.59999990463 pbc="T T T"
Cd       0.00000000       0.00000000       0.00000000 
Se       2.78150000       2.78150000       2.78150000 
2
Lattice="0.0 2.9655000000000005 2.9655000000000005 2.9655000000000005 0.0 2.9655000000000005 2.9655000000000005 2.9655000000000005 0.0" Properties=species:S:1:pos:R:3 energy=-170714.5893124294 Z=48.0 period=5.0 IP=-9.5813999176 EA=0.838699996471 E_HOMO=-5.952000141139999 E_LUMO=-1.30900001526 r_s=1.23000001907 r_p=1.7400000095400003 r_d=2.59999990463 pbc="T T T"
Cd       0.00000000       0.00000000       0.00000000 
Te       2.96550000       2.96550000       2.96550000 
2
Lattice="0.0 3.5105 3.5105 3.5105 0.0 3.5105 3.5105 3.5105 0.0" Properties=species:S:1:pos:R:3 energy=-143254.4343374349 Z=55.0 period=6.0 IP=-4.0061998367300005 EA=-0.569599986076 E_HOMO=-2.22000002861 E_LUMO=-0.547999978065 r_s=2.46000003815 r_p=3.16000008583 r_d=1.9700000286099997 pbc="T T T"
Cs       0.00000000       0.00000000       0.00000000 
Br       3.51050000       3.51050000       3.51050000 
2
Lattice="0.0 3.365 3.365 3.365 0.0 3.365 3.365 3.365 0.0" Properties=species:S:1:pos:R:3 energy=-113870.6262104306 Z=55.0 period=6.0 IP=-4.0061998367300005 EA=-0.569599986076 E_HOMO=-2.22000002861 E_LUMO=-0.547999978065 r_s=2.46000003815 r_p=3.16000008583 r_d=1.9700000286099997 pbc="T T T"
Cs       0.00000000       0.00000000       0.00000000 
Cl       3.36500000       3.36500000       3.36500000 
2
Lattice="0.0 2.9025 2.9025 2.9025 0.0 2.9025 2.9025 2.9025 0.0" Properties=species:S:1:pos:R:3 energy=-108950.88884883074 Z=55.0 period=6.0 IP=-4.0061998367300005 EA=-0.569599986076 E_HOMO=-2.22000002861 E_LUMO=-0.547999978065 r_s=2.46000003815 r_p=3.16000008583 r_d=1.9700000286099997 pbc="T T T"
Cs       0.00000000       0.00000000       0.00000000 
F       2.90250000       2.90250000       2.90250000 
2
Lattice="0.0 3.7270000000000003 3.7270000000000003 3.7270000000000003 0.0 3.7270000000000003 3.7270000000000003 3.7270000000000003 0.0" Properties=species:S:1:pos:R:3 energy=-205812.1828572401 Z=55.0 period=6.0 IP=-4.0061998367300005 EA=-0.569599986076 E_HOMO=-2.22000002861 E_LUMO=-0.547999978065 r_s=2.46000003815 r_p=3.16000008583 r_d=1.9700000286099997 pbc="T T T"
Cs       0.00000000       0.00000000       0.00000000 
I       3.72700000       3.72700000       3.72700000 
2
Lattice="0.0 2.5930000000000004 2.5930000000000004 2.5930000000000004 0.0 2.5930000000000004 2.5930000000000004 2.5930000000000004 0.0" Properties=species:S:1:pos:R:3 energy=-58243.772836020624 Z=29.0 period=4.0 IP=-8.38879966736 EA=-1.6384999752 E_HOMO=-4.855999946590001 E_LUMO=-0.64099997282 r_s=1.20000004768 r_p=1.67999994755 r_d=2.57999992371 pbc="T T T"
Cu       0.00000000       0.00000000       0.00000000 
Br       2.59300000       2.59300000       2.59300000 
2
Lattice="0.0 2.4645 2.4645 2.4645 0.0 2.4645 2.4645 2.4645 0.0" Properties=species:S:1:pos:R:3 energy=-28859.946960543413 Z=29.0 period=4.0 IP=-8.38879966736 EA=-1.6384999752 E_HOMO=-4.855999946590001 E_LUMO=-0.64099997282 r_s=1.20000004768 r_p=1.67999994755 r_d=2.57999992371 pbc="T T T"
Cu       0.00000000       0.00000000       0.00000000 
Cl       2.46450000       2.46450000       2.46450000 
2
Lattice="0.0 2.1985 2.1985 2.1985 0.0 2.1985 2.1985 2.1985 0.0" Properties=species:S:1:pos:R:3 energy=-23939.960840976764 Z=29.0 period=4.0 IP=-8.38879966736 EA=-1.6384999752 E_HOMO=-4.855999946590001 E_LUMO=-0.64099997282 r_s=1.20000004768 r_p=1.67999994755 r_d=2.57999992371 pbc="T T T"
Cu       0.00000000       0.00000000       0.00000000 
F       2.19850000       2.19850000       2.19850000 
2
Lattice="0.0 2.7605 2.7605 2.7605 0.0 2.7605 2.7605 2.7605 0.0" Properties=species:S:1:pos:R:3 energy=-120801.61870824985 Z=29.0 period=4.0 IP=-8.38879966736 EA=-1.6384999752 E_HOMO=-4.855999946590001 E_LUMO=-0.64099997282 r_s=1.20000004768 r_p=1.67999994755 r_d=2.57999992371 pbc="T T T"
Cu       0.00000000       0.00000000       0.00000000 
I       2.76050000       2.76050000       2.76050000 
2
Lattice="0.0 2.091 2.091 2.091 0.0 2.091 2.091 2.091 0.0" Properties=species:S:1:pos:R:3 energy=-27292.963945678744 Z=31.0 period=4.0 IP=-5.81820011139 EA=-0.10809999704399999 E_HOMO=-2.73200011253 E_LUMO=0.129999995232 r_s=0.9900000095370001 r_p=1.33000004292 r_d=2.16000008583 pbc="T T T"
Ga       0.00000000       0.00000000       0.00000000 
N       2.09100000       2.09100000       2.09100000 
2
Lattice="0.0 2.5245000000000006 2.5245000000000006 2.5245000000000006 0.0 2.5245000000000006 2.5245000000000006 2.5245000000000006 0.0" Properties=species:S:1:pos:R:3 energy=-31198.35551591384 Z=31.0 period=4.0 IP=-5.81820011139 EA=-0.10809999704399999 E_HOMO=-2.73200011253 E_LUMO=0.129999995232 r_s=0.9900000095370001 r_p=1.33000004292 r_d=2.16000008583 pbc="T T T"
Ga       0.00000000       0.00000000       0.00000000 
P       2.52450000       2.52450000       2.52450000 
2
Lattice="0.0 2.8225 2.8225 2.8225 0.0 2.8225 2.8225 2.8225 0.0" Properties=species:S:1:pos:R:3 energy=-115901.98274863836 Z=31.0 period=4.0 IP=-5.81820011139 EA=-0.10809999704399999 E_HOMO=-2.73200011253 E_LUMO=0.129999995232 r_s=0.9900000095370001 r_p=1.33000004292 r_d=2.16000008583 pbc="T T T"
Ga       0.00000000       0.00000000       0.00000000 
Sb       2.82250000       2.82250000       2.82250000 
2
Lattice="0.0 2.6455 2.6455 2.6455 0.0 2.6455 2.6455 2.6455 0.0" Properties=species:S:1:pos:R:3 energy=-57359.56120416938 Z=32.0 period=4.0 IP=-7.566999912260001 EA=-0.9490000009540001 E_HOMO=-4.04600000381 E_LUMO=2.17499995232 r_s=0.920000016689 r_p=1.15999996662 r_d=2.36999988556 pbc="T T T"
Ge       0.00000000       0.00000000       0.00000000 
Ge       2.64550000       2.64550000       2.64550000 
2
Lattice="0.0 2.156 2.156 2.156 0.0 2.156 2.156 2.156 0.0" Properties=species:S:1:pos:R:3 energy=-29193.278475127725 Z=32.0 period=4.0 IP=-7.566999912260001 EA=-0.9490000009540001 E_HOMO=-4.04600000381 E_LUMO=2.17499995232 r_s=0.920000016689 r_p=1.15999996662 r_d=2.36999988556 pbc="T T T"
Ge       0.00000000       0.00000000       0.00000000 
C       2.15600000       2.15600000       2.15600000 
2
Lattice="0.0 2.57 2.57 2.57 0.0 2.57 2.57 2.57 0.0" Properties=species:S:1:pos:R:3 energy=-32616.69403888785 Z=32.0 period=4.0 IP=-7.566999912260001 EA=-0.9490000009540001 E_HOMO=-4.04600000381 E_LUMO=2.17499995232 r_s=0.920000016689 r_p=1.15999996662 r_d=2.36999988556 pbc="T T T"
Ge       0.00000000       0.00000000       0.00000000 
Si       2.57000000       2.57000000       2.57000000 
2
Lattice="0.0 2.798 2.798 2.798 0.0 2.798 2.798 2.798 0.0" Properties=species:S:1:pos:R:3 energy=-111895.78725476544 Z=49.0 period=5.0 IP=-5.53739976883 EA=-0.256300002337 E_HOMO=-2.6970000267 E_LUMO=0.36800000071500005 r_s=1.12999999523 r_p=1.5 r_d=3.1099998951 pbc="T T T"
In       0.00000000       0.00000000       0.00000000 
As       2.79800000       2.79800000       2.79800000 
2
Lattice="0.0 2.302 2.302 2.302 0.0 2.302 2.302 2.302 0.0" Properties=species:S:1:pos:R:3 energy=-81730.71478475723 Z=49.0 period=5.0 IP=-5.53739976883 EA=-0.256300002337 E_HOMO=-2.6970000267 E_LUMO=0.36800000071500005 r_s=1.12999999523 r_p=1.5 r_d=3.1099998951 pbc="T T T"
In       0.00000000       0.00000000       0.00000000 
N       2.30200000       2.30200000       2.30200000 
2
Lattice="0.0 2.7075 2.7075 2.7075 0.0 2.7075 2.7075 2.7075 0.0" Properties=species:S:1:pos:R:3 energy=-85636.41199652261 Z=49.0 period=5.0 IP=-5.53739976883 EA=-0.256300002337 E_HOMO=-2.6970000267 E_LUMO=0.36800000071500005 r_s=1.12999999523 r_p=1.5 r_d=3.1099998951 pbc="T T T"
In       0.00000000       0.00000000       0.00000000 
P       2.70750000       2.70750000       2.70750000 
2
Lattice="0.0 2.988 2.988 2.988 0.0 2.988 2.988 2.988 0.0" Properties=species:S:1:pos:R:3 energy=-170340.10360629848 Z=49.0 period=5.0 IP=-5.53739976883 EA=-0.256300002337 E_HOMO=-2.6970000267 E_LUMO=0.36800000071500005 r_s=1.12999999523 r_p=1.5 r_d=3.1099998951 pbc="T T T"
In       0.00000000       0.00000000       0.00000000 
Sb       2.98800000       2.98800000       2.98800000 
2
Lattice="0.0 3.186 3.186 3.186 0.0 3.186 3.186 3.186 0.0" Properties=species:S:1:pos:R:3 energy=-43846.22818606151 Z=19.0 period=4.0 IP=-4.43319988251 EA=-0.621299982071 E_HOMO=-2.4260001182599997 E_LUMO=-0.6970000267030001 r_s=2.13000011444 r_p=2.4400000572200002 r_d=1.78999996185 pbc="T T T"
K       0.00000000       0.00000000       0.00000000 
Br       3.18600000       3.18600000       3.18600000 
2
Lattice="0.0 3.039 3.039 3.039 0.0 3.039 3.039 3.039 0.0" Properties=species:S:1:pos:R:3 energy=-14462.44447168486 Z=19.0 period=4.0 IP=-4.43319988251 EA=-0.621299982071 E_HOMO=-2.4260001182599997 E_LUMO=-0.6970000267030001 r_s=2.13000011444 r_p=2.4400000572200002 r_d=1.78999996185 pbc="T T T"
K       0.00000000       0.00000000       0.00000000 
Cl       3.03900000       3.03900000       3.03900000 
2
Lattice="0.0 2.5815 2.5815 2.5815 0.0 2.5815 2.5815 2.5815 0.0" Properties=species:S:1:pos:R:3 energy=-9542.777877059552 Z=19.0 period=4.0 IP=-4.43319988251 EA=-0.621299982071 E_HOMO=-2.4260001182599997 E_LUMO=-0.6970000267030001 r_s=2.13000011444 r_p=2.4400000572200002 r_d=1.78999996185 pbc="T T T"
K       0.00000000       0.00000000       0.00000000 
F       2.58150000       2.58150000       2.58150000 
2
Lattice="0.0 3.408 3.408 3.408 0.0 3.408 3.408 3.408 0.0" Properties=species:S:1:pos:R:3 energy=-106403.94989684867 Z=19.0 period=4.0 IP=-4.43319988251 EA=-0.621299982071 E_HOMO=-2.4260001182599997 E_LUMO=-0.6970000267030001 r_s=2.13000011444 r_p=2.4400000572200002 r_d=1.78999996185 pbc="T T T"
K       0.00000000       0.00000000       0.00000000 
I       3.40800000       3.40800000       3.40800000 
2
Lattice="0.0 2.6555000000000004 2.6555000000000004 2.6555000000000004 0.0 2.6555000000000004 2.6555000000000004 2.6555000000000004 0.0" Properties=species:S:1:pos:R:3 energy=-35758.254036685415 Z=3.0 period=2.0 IP=-5.32910013199 EA=-0.698099970818 E_HOMO=-2.8740000724799994 E_LUMO=-0.9779999852179999 r_s=1.64999997616 r_p=2.0 r_d=6.92999982834 pbc="T T T"
Li       0.00000000       0.00000000       0.00000000 
Br       2.65550000       2.65550000       2.65550000 
2
Lattice="0.0 2.483 2.483 2.483 0.0 2.483 2.483 2.483 0.0" Properties=species:S:1:pos:R:3 energy=-6374.542821311546 Z=3.0 period=2.0 IP=-5.32910013199 EA=-0.698099970818 E_HOMO=-2.8740000724799994 E_LUMO=-0.9779999852179999 r_s=1.64999997616 r_p=2.0 r_d=6.92999982834 pbc="T T T"
Li       0.00000000       0.00000000       0.00000000 
Cl       2.48300000       2.48300000       2.48300000 
2
Lattice="0.0 1.9555 1.9555 1.9555 0.0 1.9555 1.9555 1.9555 0.0" Properties=species:S:1:pos:R:3 energy=-1455.2422308540065 Z=3.0 period=2.0 IP=-5.32910013199 EA=-0.698099970818 E_HOMO=-2.8740000724799994 E_LUMO=-0.9779999852179999 r_s=1.64999997616 r_p=2.0 r_d=6.92999982834 pbc="T T T"
Li       0.00000000       0.00000000       0.00000000 
F       1.95550000       1.95550000       1.95550000 
2
Lattice="0.0 2.9025 2.9025 2.9025 0.0 2.9025 2.9025 2.9025 0.0" Properties=species:S:1:pos:R:3 energy=-98315.90504246672 Z=3.0 period=2.0 IP=-5.32910013199 EA=-0.698099970818 E_HOMO=-2.8740000724799994 E_LUMO=-0.9779999852179999 r_s=1.64999997616 r_p=2.0 r_d=6.92999982834 pbc="T T T"
Li       0.00000000       0.00000000       0.00000000 
I       2.90250000       2.90250000       2.90250000 
2
Lattice="0.0 2.03987 2.03987 2.03987 0.0 2.03987 2.03987 2.03987 0.0" Properties=species:S:1:pos:R:3 energy=-3737.0747449401097 Z=12.0 period=3.0 IP=-8.037099838260001 EA=0.692499995232 E_HOMO=-4.78200006485 E_LUMO=-1.3580000400499999 r_s=1.33000004292 r_p=1.89999997616 r_d=3.17000007629 pbc="T T T"
Mg       0.00000000       0.00000000       0.00000000 
O       2.03987000       2.03987000       2.03987000 
2
Lattice="0.0 2.566 2.566 2.566 0.0 2.566 2.566 2.566 0.0" Properties=species:S:1:pos:R:3 energy=-8141.593383043353 Z=12.0 period=3.0 IP=-8.037099838260001 EA=0.692499995232 E_HOMO=-4.78200006485 E_LUMO=-1.3580000400499999 r_s=1.33000004292 r_p=1.89999997616 r_d=3.17000007629 pbc="T T T"
Mg       0.00000000       0.00000000       0.00000000 
S       2.56600000       2.56600000       2.56600000 
2
Lattice="0.0 2.6975 2.6975 2.6975 0.0 2.6975 2.6975 2.6975 0.0" Properties=species:S:1:pos:R:3 energy=-35947.940030845435 Z=12.0 period=3.0 IP=-8.037099838260001 EA=0.692499995232 E_HOMO=-4.78200006485 E_LUMO=-1.3580000400499999 r_s=1.33000004292 r_p=1.89999997616 r_d=3.17000007629 pbc="T T T"
Mg       0.00000000       0.00000000       0.00000000 
Se       2.69750000       2.69750000       2.69750000 
2
Lattice="0.0 2.9215 2.9215 2.9215 0.0 2.9215 2.9215 2.9215 0.0" Properties=species:S:1:pos:R:3 energy=-96435.2383537187 Z=12.0 period=3.0 IP=-8.037099838260001 EA=0.692499995232 E_HOMO=-4.78200006485 E_LUMO=-1.3580000400499999 r_s=1.33000004292 r_p=1.89999997616 r_d=3.17000007629 pbc="T T T"
Mg       0.00000000       0.00000000       0.00000000 
Te       2.92150000       2.92150000       2.92150000 
2
Lattice="0.0 2.893 2.893 2.893 0.0 2.893 2.893 2.893 0.0" Properties=species:S:1:pos:R:3 energy=-37859.126083455434 Z=11.0 period=3.0 IP=-5.223100185390001 EA=-0.715699970722 E_HOMO=-2.8190000057200004 E_LUMO=-0.717999994755 r_s=1.71000003815 r_p=2.59999990463 r_d=6.57000017166 pbc="T T T"
Na       0.00000000       0.00000000       0.00000000 
Br       2.89300000       2.89300000       2.89300000 
2
Lattice="0.0 2.7325 2.7325 2.7325 0.0 2.7325 2.7325 2.7325 0.0" Properties=species:S:1:pos:R:3 energy=-8475.37343440655 Z=11.0 period=3.0 IP=-5.223100185390001 EA=-0.715699970722 E_HOMO=-2.8190000057200004 E_LUMO=-0.717999994755 r_s=1.71000003815 r_p=2.59999990463 r_d=6.57000017166 pbc="T T T"
Na       0.00000000       0.00000000       0.00000000 
Cl       2.73250000       2.73250000       2.73250000 
2
Lattice="0.0 2.252 2.252 2.252 0.0 2.252 2.252 2.252 0.0" Properties=species:S:1:pos:R:3 energy=-3555.8434060251107 Z=11.0 period=3.0 IP=-5.223100185390001 EA=-0.715699970722 E_HOMO=-2.8190000057200004 E_LUMO=-0.717999994755 r_s=1.71000003815 r_p=2.59999990463 r_d=6.57000017166 pbc="T T T"
Na       0.00000000       0.00000000       0.00000000 
F       2.25200000       2.25200000       2.25200000 
2
Lattice="0.0 3.13 3.13 3.13 0.0 3.13 3.13 3.13 0.0" Properties=species:S:1:pos:R:3 energy=-100416.81623126328 Z=11.0 period=3.0 IP=-5.223100185390001 EA=-0.715699970722 E_HOMO=-2.8190000057200004 E_LUMO=-0.717999994755 r_s=1.71000003815 r_p=2.59999990463 r_d=6.57000017166 pbc="T T T"
Na       0.00000000       0.00000000       0.00000000 
I       3.13000000       3.13000000       3.13000000 
2
Lattice="0.0 3.3335 3.3335 3.3335 0.0 3.3335 3.3335 3.3335 0.0" Properties=species:S:1:pos:R:3 energy=-76473.68939266614 Z=37.0 period=5.0 IP=-4.28889989853 EA=-0.590399980545 E_HOMO=-2.3599998951 E_LUMO=-0.704999983311 r_s=2.24000000954 r_p=3.20000004768 r_d=1.96000003815 pbc="T T T"
Rb       0.00000000       0.00000000       0.00000000 
Br       3.33350000       3.33350000       3.33350000 
2
Lattice="0.0 3.189 3.189 3.189 0.0 3.189 3.189 3.189 0.0" Properties=species:S:1:pos:R:3 energy=-47089.89292301863 Z=37.0 period=5.0 IP=-4.28889989853 EA=-0.590399980545 E_HOMO=-2.3599998951 E_LUMO=-0.704999983311 r_s=2.24000000954 r_p=3.20000004768 r_d=1.96000003815 pbc="T T T"
Rb       0.00000000       0.00000000       0.00000000 
Cl       3.18900000       3.18900000       3.18900000 
2
Lattice="0.0 2.7320000000000007 2.7320000000000007 2.7320000000000007 0.0 2.7320000000000007 2.7320000000000007 2.7320000000000007 0.0" Properties=species:S:1:pos:R:3 energy=-42170.18365900315 Z=37.0 period=5.0 IP=-4.28889989853 EA=-0.590399980545 E_HOMO=-2.3599998951 E_LUMO=-0.704999983311 r_s=2.24000000954 r_p=3.20000004768 r_d=1.96000003815 pbc="T T T"
Rb       0.00000000       0.00000000       0.00000000 
F       2.73200000       2.73200000       2.73200000 
2
Lattice="0.0 3.552 3.552 3.552 0.0 3.552 3.552 3.552 0.0" Properties=species:S:1:pos:R:3 energy=-139031.4254132218 Z=37.0 period=5.0 IP=-4.28889989853 EA=-0.590399980545 E_HOMO=-2.3599998951 E_LUMO=-0.704999983311 r_s=2.24000000954 r_p=3.20000004768 r_d=1.96000003815 pbc="T T T"
Rb       0.00000000       0.00000000       0.00000000 
I       3.55200000       3.55200000       3.55200000 
2
Lattice="0.0 2.4975 2.4975 2.4975 0.0 2.4975 2.4975 2.4975 0.0" Properties=species:S:1:pos:R:3 energy=-7873.897162319816 Z=14.0 period=3.0 IP=-7.75769996643 EA=-0.992999970913 E_HOMO=-4.16300010681 E_LUMO=0.439999997616 r_s=0.9399999976160001 r_p=1.12999999523 r_d=1.88999998569 pbc="T T T"
Si       0.00000000       0.00000000       0.00000000 
Si       2.49750000       2.49750000       2.49750000 
2
Lattice="0.0 2.0025 2.0025 2.0025 0.0 2.0025 2.0025 2.0025 0.0" Properties=species:S:1:pos:R:3 energy=-4451.285598745774 Z=14.0 period=3.0 IP=-7.75769996643 EA=-0.992999970913 E_HOMO=-4.16300010681 E_LUMO=0.439999997616 r_s=0.9399999976160001 r_p=1.12999999523 r_d=1.88999998569 pbc="T T T"
Si       0.00000000       0.00000000       0.00000000 
C       2.00250000       2.00250000       2.00250000 
2
Lattice="0.0 3.0045 3.0045 3.0045 0.0 3.0045 3.0045 3.0045 0.0" Properties=species:S:1:pos:R:3 energy=-170215.3505922382 Z=50.0 period=5.0 IP=-7.04279994965 EA=-1.03919994831 E_HOMO=-3.86599993706 E_LUMO=0.008000000379979999 r_s=1.05999994278 r_p=1.34000003338 r_d=2.02999997139 pbc="T T T"
Sn       0.00000000       0.00000000       0.00000000 
Sn       3.00450000       3.00450000       3.00450000 
2
Lattice="0.0 2.355 2.355 2.355 0.0 2.355 2.355 2.355 0.0" Properties=species:S:1:pos:R:3 energy=-85621.03540856167 Z=50.0 period=5.0 IP=-7.04279994965 EA=-1.03919994831 E_HOMO=-3.86599993706 E_LUMO=0.008000000379979999 r_s=1.05999994278 r_p=1.34000003338 r_d=2.02999997139 pbc="T T T"
Sn       0.00000000       0.00000000       0.00000000 
C       2.35500000       2.35500000       2.35500000 
2