2
Lattice="0.0 3.0175 3.0175 3.0175 0.0 3.0175 3.0175 3.0175 0.0" Properties=species:S:1:pos:R:3 energy=-108781.30392515441 Z=35.0 period=4.0 IP=-12.649600029 EA=-3.73930001259 E_HOMO=-8.001000404360001 E_LUMO=0.7080000042919999 r_s=0.75 r_p=0.879999995232 r_d=1.87000000477 pbc="T T T"
Ag       0.00000000       0.00000000       0.00000000 
Br       1.50875000       1.50875000       1.50875000 
2
Lattice="0.0 2.8900000000000006 2.8900000000000006 2.8900000000000006 0.0 2.8900000000000006 2.8900000000000006 2.8900000000000006 0.0" Properties=species:S:1:pos:R:3 energy=-79397.40828546332 Z=17.0 period=3.0 IP=-13.9018001556 EA=-3.9707999229400004 E_HOMO=-8.699999809269999 E_LUMO=0.574000000954 r_s=0.6800000071529999 r_p=0.7599999904629999 r_d=1.6699999570800002 pbc="T T T"
Ag       0.00000000       0.00000000       0.00000000 
Cl       1.44500000       1.44500000       1.44500000 
2
Lattice="0.0 2.601 2.601 2.601 0.0 2.601 2.601 2.601 0.0" Properties=species:S:1:pos:R:3 energy=-74477.27440749042 Z=9.0 period=2.0 IP=-19.4043006897 EA=-4.27349996567 E_HOMO=-11.2939996719 E_LUMO=1.25100004673 r_s=0.409999996424 r_p=0.37000000476800005 r_d=1.42999994755 pbc="T T T"
Ag       0.00000000       0.00000000       0.00000000 
F       1.30050000       1.30050000       1.30050000 
2
Lattice="0.0 3.1775 3.1775 3.1775 0.0 3.1775 3.1775 3.1775 0.0" Properties=species:S:1:pos:R:3 energy=-171339.2451068673 Z=53.0 period=5.0 IP=-11.2571001053 EA=-3.5134999752 E_HOMO=-7.2360000610399995 E_LUMO=0.212999999523 r_s=0.899999976158 r_p=1.07000005245 r_d=1.7200000286099997 pbc="T T T"
Ag       0.00000000       0.00000000       0.00000000 
I       1.58875000       1.58875000       1.58875000 
2
Lattice="0.0 2.816 2.816 2.816 0.0 2.816 2.816 2.816 0.0" Properties=species:S:1:pos:R:3 energy=-34200.29077459535 Z=33.0 period=4.0 IP=-9.26189994812 EA=-1.8392000198400003 E_HOMO=-5.34100008011 E_LUMO=0.0640000030398 r_s=0.850000023842 r_p=1.03999996185 r_d=2.0199999809299998 pbc="T T T"
Al       0.00000000       0.00000000       0.00000000 
As       1.40800000       1.40800000       1.40800000 
2
Lattice="0.0 2.1725 2.1725 2.1725 0.0 2.1725 2.1725 2.1725 0.0" Properties=species:S:1:pos:R:3 energy=-4036.501997576937 Z=7.0 period=2.0 IP=-13.5852003098 EA=-1.86749994755 E_HOMO=-7.2389998436 E_LUMO=3.0569999218 r_s=0.540000021458 r_p=0.509999990463 r_d=1.53999996185 pbc="T T T"
Al       0.00000000       0.00000000       0.00000000 
N       1.08625000       1.08625000       1.08625000 
2
Lattice="0.0 2.718 2.718 2.718 0.0 2.718 2.718 2.718 0.0" Properties=species:S:1:pos:R:3 energy=-7941.081703564847 Z=15.0 period=3.0 IP=-9.75059986115 EA=-1.9199999570800002 E_HOMO=-5.59600019455 E_LUMO=0.18299999833099997 r_s=0.829999983311 r_p=0.97000002861 r_d=1.76999998093 pbc="T T T"
Al       0.00000000       0.00000000       0.00000000 
P       1.35900000       1.35900000       1.35900000 
2
Lattice="0.0 3.056 3.056 3.056 0.0 3.056 3.056 3.056 0.0" Properties=species:S:1:pos:R:3 energy=-92644.34887311883 Z=51.0 period=5.0 IP=-8.46829986572 EA=-1.84669995308 E_HOMO=-4.99100017548 E_LUMO=0.104999996722 r_s=1.0 r_p=1.23000001907 r_d=2.0599999427799998 pbc="T T T"
Al       0.00000000       0.00000000       0.00000000 
Sb       1.52800000       1.52800000       1.52800000 
2
Lattice="0.0 2.8035 2.8035 2.8035 0.0 2.8035 2.8035 2.8035 0.0" Properties=species:S:1:pos:R:3 energy=-57457.9542356472 Z=33.0 period=4.0 IP=-9.26189994812 EA=-1.8392000198400003 E_HOMO=-5.34100008011 E_LUMO=0.0640000030398 r_s=0.850000023842 r_p=1.03999996185 r_d=2.0199999809299998 pbc="T T T"
Ga       0.00000000       0.00000000       0.00000000 
As       1.40175000       1.40175000       1.40175000 
2
Lattice="0.0 2.367 2.367 2.367 0.0 2.367 2.367 2.367 0.0" Properties=species:S:1:pos:R:3 energy=-31240.22232232208 Z=33.0 period=4.0 IP=-9.26189994812 EA=-1.8392000198400003 E_HOMO=-5.34100008011 E_LUMO=0.0640000030398 r_s=0.850000023842 r_p=1.03999996185 r_d=2.0199999809299998 pbc="T T T"
B       0.00000000       0.00000000       0.00000000 
As       1.18350000       1.18350000       1.18350000 
2
Lattice="0.0 1.7915000000000003 1.7915000000000003 1.7915000000000003 0.0 1.7915000000000003 1.7915000000000003 1.7915000000000003 0.0" Properties=species:S:1:pos:R:3 energy=-1076.7454955539624 Z=7.0 period=2.0 IP=-13.5852003098 EA=-1.86749994755 E_HOMO=-7.2389998436 E_LUMO=3.0569999218 r_s=0.540000021458 r_p=0.509999990463 r_d=1.53999996185 pbc="T T T"
B       0.00000000       0.00000000       0.00000000 
N       0.89575000       0.89575000       0.89575000 
2
Lattice="0.0 2.246 2.246 2.246 0.0 2.246 2.246 2.246 0.0" Properties=species:S:1:pos:R:3 energy=-4981.291645038916 Z=15.0 period=3.0 IP=-9.75059986115 EA=-1.9199999570800002 E_HOMO=-5.59600019455 E_LUMO=0.18299999833099997 r_s=0.829999983311 r_p=0.97000002861 r_d=1.76999998093 pbc="T T T"
B       0.00000000       0.00000000       0.00000000 
P       1.12300000       1.12300000       1.12300000 
2
Lattice="0.0 2.5930000000000004 2.5930000000000004 2.5930000000000004 0.0 2.5930000000000004 2.5930000000000004 2.5930000000000004 0.0" Properties=species:S:1:pos:R:3 energy=-89684.1945505284 Z=51.0 period=5.0 IP=-8.46829986572 EA=-1.84669995308 E_HOMO=-4.99100017548 E_LUMO=0.104999996722 r_s=1.0 r_p=1.23000001907 r_d=2.0599999427799998 pbc="T T T"
B       0.00000000       0.00000000       0.00000000 
Sb       1.29650000       1.29650000       1.29650000 
2
Lattice="0.0 2.8965 2.8965 2.8965 0.0 2.8965 2.8965 2.8965 0.0" Properties=species:S:1:pos:R:3 energy=-113504.73396479135 Z=8.0 period=2.0 IP=-16.433200836199997 EA=-3.00589990616 E_HOMO=-9.19699954987 E_LUMO=2.54099988937 r_s=0.460000008345 r_p=0.430000007153 r_d=2.22000002861 pbc="T T T"
Ba       0.00000000       0.00000000       0.00000000 
O       1.44825000       1.44825000       1.44825000 
2
Lattice="0.0 3.433 3.433 3.433 0.0 3.433 3.433 3.433 0.0" Properties=species:S:1:pos:R:3 energy=-117909.9511775038 Z=16.0 period=3.0 IP=-11.795100212100001 EA=-2.8448998928099996 E_HOMO=-7.105999946589999 E_LUMO=0.64200001955 r_s=0.7400000095370001 r_p=0.850000023842 r_d=2.36999988556 pbc="T T T"
Ba       0.00000000       0.00000000       0.00000000 
S       1.71650000       1.71650000       1.71650000 
2
Lattice="0.0 3.5640000000000005 3.5640000000000005 3.5640000000000005 0.0 3.5640000000000005 3.5640000000000005 3.5640000000000005 0.0" Properties=species:S:1:pos:R:3 energy=-145716.42622697598 Z=34.0 period=4.0 IP=-10.9460000992 EA=-2.7509999275200006 E_HOMO=-6.65399980545 E_LUMO=1.31599998474 r_s=0.800000011921 r_p=0.949999988079 r_d=2.18000006676 pbc="T T T"
Ba       0.00000000       0.00000000       0.00000000 
Se       1.78200000       1.78200000       1.78200000 
2
Lattice="0.0 3.807 3.807 3.807 0.0 3.807 3.807 3.807 0.0" Properties=species:S:1:pos:R:3 energy=-206203.85365855953 Z=52.0 period=5.0 IP=-9.86670017242 EA=-2.66599988937 E_HOMO=-6.10900020599 E_LUMO=0.09899999946360001 r_s=0.9399999976160001 r_p=1.1399999856899998 r_d=1.8300000429199998 pbc="T T T"
Ba       0.00000000       0.00000000       0.00000000 
Te       1.90350000       1.90350000       1.90350000 
2
Lattice="0.0 1.8433800000000002 1.8433800000000002 1.8433800000000002 0.0 1.8433800000000002 1.8433800000000002 1.8433800000000002 0.0" Properties=species:S:1:pos:R:3 energy=-1219.1317960407468 Z=8.0 period=2.0 IP=-16.433200836199997 EA=-3.00589990616 E_HOMO=-9.19699954987 E_LUMO=2.54099988937 r_s=0.460000008345 r_p=0.430000007153 r_d=2.22000002861 pbc="T T T"
Be       0.00000000       0.00000000       0.00000000 
O       0.92169000       0.92169000       0.92169000 
2
Lattice="0.0 2.399 2.399 2.399 0.0 2.399 2.399 2.399 0.0" Properties=species:S:1:pos:R:3 energy=-5623.02186716789 Z=16.0 period=3.0 IP=-11.795100212100001 EA=-2.8448998928099996 E_HOMO=-7.105999946589999 E_LUMO=0.64200001955 r_s=0.7400000095370001 r_p=0.850000023842 r_d=2.36999988556 pbc="T T T"
Be       0.00000000       0.00000000       0.00000000 
S       1.19950000       1.19950000       1.19950000 
2
Lattice="0.0 2.5420000000000003 2.5420000000000003 2.5420000000000003 0.0 2.5420000000000003 2.5420000000000003 2.5420000000000003 0.0" Properties=species:S:1:pos:R:3 energy=-33429.291702542425 Z=34.0 period=4.0 IP=-10.9460000992 EA=-2.7509999275200006 E_HOMO=-6.65399980545 E_LUMO=1.31599998474 r_s=0.800000011921 r_p=0.949999988079 r_d=2.18000006676 pbc="T T T"
Be       0.00000000       0.00000000       0.00000000 
Se       1.27100000       1.27100000       1.27100000 
2
Lattice="0.0 2.779 2.779 2.779 0.0 2.779 2.779 2.779 0.0" Properties=species:S:1:pos:R:3 energy=-93916.57277200608 Z=52.0 period=5.0 IP=-9.86670017242 EA=-2.66599988937 E_HOMO=-6.10900020599 E_LUMO=0.09899999946360001 r_s=0.9399999976160001 r_p=1.1399999856899998 r_d=1.8300000429199998 pbc="T T T"
Be       0.00000000       0.00000000       0.00000000 
Te       1.38950000       1.38950000       1.38950000 
2
Lattice="0.0 1.767 1.767 1.767 0.0 1.767 1.767 1.767 0.0" Properties=species:S:1:pos:R:3 energy=-1029.1774239138254 Z=6.0 period=2.0 IP=-10.851699829100001 EA=-0.87239998579 E_HOMO=-5.415999889369999 E_LUMO=1.99199998379 r_s=0.6399999856949999 r_p=0.629999995232 r_d=1.62999999523 pbc="T T T"
C       0.00000000       0.00000000       0.00000000 
C       0.88350000       0.88350000       0.88350000 
2
Lattice="0.0 2.5605 2.5605 2.5605 0.0 2.5605 2.5605 2.5605 0.0" Properties=species:S:1:pos:R:3 energy=-10276.63586618221 Z=8.0 period=2.0 IP=-16.433200836199997 EA=-3.00589990616 E_HOMO=-9.19699954987 E_LUMO=2.54099988937 r_s=0.460000008345 r_p=0.430000007153 r_d=2.22000002861 pbc="T T T"
Ca       0.00000000       0.00000000       0.00000000 
O       1.28025000       1.28025000       1.28025000 
2
Lattice="0.0 3.0780000000000003 3.0780000000000003 3.0780000000000003 0.0 3.0780000000000003 3.0780000000000003 3.0780000000000003 0.0" Properties=species:S:1:pos:R:3 energy=-14681.577607840461 Z=16.0 period=3.0 IP=-11.795100212100001 EA=-2.8448998928099996 E_HOMO=-7.105999946589999 E_LUMO=0.64200001955 r_s=0.7400000095370001 r_p=0.850000023842 r_d=2.36999988556 pbc="T T T"
Ca       0.00000000       0.00000000       0.00000000 
S       1.53900000       1.53900000       1.53900000 
2
Lattice="0.0 3.209 3.209 3.209 0.0 3.209 3.209 3.209 0.0" Properties=species:S:1:pos:R:3 energy=-42487.99212246608 Z=34.0 period=4.0 IP=-10.9460000992 EA=-2.7509999275200006 E_HOMO=-6.65399980545 E_LUMO=1.31599998474 r_s=0.800000011921 r_p=0.949999988079 r_d=2.18000006676 pbc="T T T"
Ca       0.00000000       0.00000000       0.00000000 
Se       1.60450000       1.60450000       1.60450000 
2
Lattice="0.0 3.4565000000000006 3.4565000000000006 3.4565000000000006 0.0 3.4565000000000006 3.4565000000000006 3.4565000000000006 0.0" Properties=species:S:1:pos:R:3 energy=-102975.3456626407 Z=52.0 period=5.0 IP=-9.86670017242 EA=-2.66599988937 E_HOMO=-6.10900020599 E_LUMO=0.09899999946360001 r_s=0.9399999976160001 r_p=1.1399999856899998 r_d=1.8300000429199998 pbc="T T T"
Ca       0.00000000       0.00000000       0.00000000 
Te       1.72825000       1.72825000       1.72825000 
2
Lattice="0.0 2.4965 2.4965 2.4965 0.0 2.4965 2.4965 2.4965 0.0" Properties=species:S:1:pos:R:3 energy=-78015.08414810536 Z=8.0 period=2.0 IP=-16.433200836199997 EA=-3.00589990616 E_HOMO=-9.19699954987 E_LUMO=2.54099988937 r_s=0.460000008345 r_p=0.430000007153 r_d=2.22000002861 pbc="T T T"
Cd       0.00000000       0.00000000       0.00000000 
O       1.24825000       1.24825000       1.24825000 
2
Lattice="0.0 2.88 2.88 2.88 0.0 2.88 2.88 2.88 0.0" Properties=species:S:1:pos:R:3 energy=-82420.63603453907 Z=16.0 period=3.0 IP=-11.795100212100001 EA=-2.8448998928099996 E_HOMO=-7.105999946589999 E_LUMO=0.64200001955 r_s=0.7400000095370001 r_p=0.850000023842 r_d=2.36999988556 pbc="T T T"
Cd       0.00000000       0.00000000       0.00000000 
S       1.44000000       1.44000000       1.44000000 
2
Lattice="0.0 3.0065 3.0065 3.0065 0.0 3.0065 3.0065 3.0065 0.0" Properties=species:S:1:pos:R:3 energy=-110227.14483277715 Z=34.0 period=4.0 IP=-10.9460000992 EA=-2.7509999275200006 E_HOMO=-6.65399980545 E_LUMO=1.31599998474 r_s=0.800000011921 r_p=0.949999988079 r_d=2.18000006676 pbc="T T T"
Cd       0.00000000       0.00000000       0.00000000 
Se       1.50325000       1.50325000       1.50325000 
2
Lattice="0.0 3.207 3.207 3.207 0.0 3.207 3.207 3.207 0.0" Properties=species:S:1:pos:R:3 energy=-170714.7038519616 Z=52.0 period=5.0 IP=-9.86670017242 EA=-2.66599988937 E_HOMO=-6.10900020599 E_LUMO=0.09899999946360001 r_s=0.9399999976160001 r_p=1.1399999856899998 r_d=1.8300000429199998 pbc="T T T"
Cd       0.00000000       0.00000000       0.00000000 
Te       1.60350000       1.60350000       1.60350000 
2
Lattice="0.0 3.9145 3.9145 3.9145 0.0 3.9145 3.9145 3.9145 0.0" Properties=species:S:1:pos:R:3 energy=-143254.27847013192 Z=35.0 period=4.0 IP=-12.649600029 EA=-3.73930001259 E_HOMO=-8.001000404360001 E_LUMO=0.7080000042919999 r_s=0.75 r_p=0.879999995232 r_d=1.87000000477 pbc="T T T"
Cs       0.00000000       0.00000000       0.00000000 
Br       1.95725000       1.95725000       1.95725000 
2
Lattice="0.0 3.7425 3.7425 3.7425 0.0 3.7425 3.7425 3.7425 0.0" Properties=species:S:1:pos:R:3 energy=-113870.47586427315 Z=17.0 period=3.0 IP=-13.9018001556 EA=-3.9707999229400004 E_HOMO=-8.699999809269999 E_LUMO=0.574000000954 r_s=0.6800000071529999 r_p=0.7599999904629999 r_d=1.6699999570800002 pbc="T T T"
Cs       0.00000000       0.00000000       0.00000000 
Cl       1.87125000       1.87125000       1.87125000 
2
Lattice="0.0 3.171 3.171 3.171 0.0 3.171 3.171 3.171 0.0" Properties=species:S:1:pos:R:3 energy=-108950.78058551207 Z=9.0 period=2.0 IP=-19.4043006897 EA=-4.27349996567 E_HOMO=-11.2939996719 E_LUMO=1.25100004673 r_s=0.409999996424 r_p=0.37000000476800005 r_d=1.42999994755 pbc="T T T"
Cs       0.00000000       0.00000000       0.00000000 
F       1.58550000       1.58550000       1.58550000 
2
Lattice="0.0 4.176 4.176 4.176 0.0 4.176 4.176 4.176 0.0" Properties=species:S:1:pos:R:3 energy=-205812.02046976562 Z=53.0 period=5.0 IP=-11.2571001053 EA=-3.5134999752 E_HOMO=-7.2360000610399995 E_LUMO=0.212999999523 r_s=0.899999976158 r_p=1.07000005245 r_d=1.7200000286099997 pbc="T T T"
Cs       0.00000000       0.00000000       0.00000000 
I       2.08800000       2.08800000       2.08800000 
2
Lattice="0.0 2.749 2.749 2.749 0.0 2.749 2.749 2.749 0.0" Properties=species:S:1:pos:R:3 energy=-58243.92527866041 Z=35.0 period=4.0 IP=-12.649600029 EA=-3.73930001259 E_HOMO=-8.001000404360001 E_LUMO=0.7080000042919999 r_s=0.75 r_p=0.879999995232 r_d=1.87000000477 pbc="T T T"
Cu       0.00000000       0.00000000       0.00000000 
Br       1.37450000       1.37450000       1.37450000 
2
Lattice="0.0 2.6050000000000004 2.6050000000000004 2.6050000000000004 0.0 2.6050000000000004 2.6050000000000004 2.6050000000000004 0.0" Properties=species:S:1:pos:R:3 energy=-28860.103219256605 Z=17.0 period=3.0 IP=-13.9018001556 EA=-3.9707999229400004 E_HOMO=-8.699999809269999 E_LUMO=0.574000000954 r_s=0.6800000071529999 r_p=0.7599999904629999 r_d=1.6699999570800002 pbc="T T T"
Cu       0.00000000       0.00000000       0.00000000 
Cl       1.30250000       1.30250000       1.30250000 
2
Lattice="0.0 2.3315 2.3315 2.3315 0.0 2.3315 2.3315 2.3315 0.0" Properties=species:S:1:pos:R:3 energy=-23939.94381870442 Z=9.0 period=2.0 IP=-19.4043006897 EA=-4.27349996567 E_HOMO=-11.2939996719 E_LUMO=1.25100004673 r_s=0.409999996424 r_p=0.37000000476800005 r_d=1.42999994755 pbc="T T T"
Cu       0.00000000       0.00000000       0.00000000 
F       1.16575000       1.16575000       1.16575000 
2
Lattice="0.0 2.932 2.932 2.932 0.0 2.932 2.932 2.932 0.0" Properties=species:S:1:pos:R:3 energy=-120801.82338283311 Z=53.0 period=5.0 IP=-11.2571001053 EA=-3.5134999752 E_HOMO=-7.2360000610399995 E_LUMO=0.212999999523 r_s=0.899999976158 r_p=1.07000005245 r_d=1.7200000286099997 pbc="T T T"
Cu       0.00000000       0.00000000       0.00000000 
I       1.46600000       1.46600000       1.46600000 
2
Lattice="0.0 2.23 2.23 2.23 0.0 2.23 2.23 2.23 0.0" Properties=species:S:1:pos:R:3 energy=-27293.39739091784 Z=7.0 period=2.0 IP=-13.5852003098 EA=-1.86749994755 E_HOMO=-7.2389998436 E_LUMO=3.0569999218 r_s=0.540000021458 r_p=0.509999990463 r_d=1.53999996185 pbc="T T T"
Ga       0.00000000       0.00000000       0.00000000 
N       1.11500000       1.11500000       1.11500000 
2
Lattice="0.0 2.6975 2.6975 2.6975 0.0 2.6975 2.6975 2.6975 0.0" Properties=species:S:1:pos:R:3 energy=-31198.704267711593 Z=15.0 period=3.0 IP=-9.75059986115 EA=-1.9199999570800002 E_HOMO=-5.59600019455 E_LUMO=0.18299999833099997 r_s=0.829999983311 r_p=0.97000002861 r_d=1.76999998093 pbc="T T T"
Ga       0.00000000       0.00000000       0.00000000 
P       1.34875000       1.34875000       1.34875000 
2
Lattice="0.0 3.026 3.026 3.026 0.0 3.026 3.026 3.026 0.0" Properties=species:S:1:pos:R:3 energy=-115902.13737392346 Z=51.0 period=5.0 IP=-8.46829986572 EA=-1.84669995308 E_HOMO=-4.99100017548 E_LUMO=0.104999996722 r_s=1.0 r_p=1.23000001907 r_d=2.0599999427799998 pbc="T T T"
Ga       0.00000000       0.00000000       0.00000000 
Sb       1.51300000       1.51300000       1.51300000 
2
Lattice="0.0 2.8130000000000006 2.8130000000000006 2.8130000000000006 0.0 2.8130000000000006 2.8130000000000006 2.8130000000000006 0.0" Properties=species:S:1:pos:R:3 energy=-57359.76205669544 Z=32.0 period=4.0 IP=-7.566999912260001 EA=-0.9490000009540001 E_HOMO=-4.04600000381 E_LUMO=2.17499995232 r_s=0.920000016689 r_p=1.15999996662 r_d=2.36999988556 pbc="T T T"
Ge       0.00000000       0.00000000       0.00000000 
Ge       1.40650000       1.40650000       1.40650000 
2
Lattice="0.0 2.2655 2.2655 2.2655 0.0 2.2655 2.2655 2.2655 0.0" Properties=species:S:1:pos:R:3 energy=-29194.089918007925 Z=6.0 period=2.0 IP=-10.851699829100001 EA=-0.87239998579 E_HOMO=-5.415999889369999 E_LUMO=1.99199998379 r_s=0.6399999856949999 r_p=0.629999995232 r_d=1.62999999523 pbc="T T T"
Ge       0.00000000       0.00000000       0.00000000 
C       1.13275000       1.13275000       1.13275000 
2
Lattice="0.0 2.7505000000000006 2.7505000000000006 2.7505000000000006 0.0 2.7505000000000006 2.7505000000000006 2.7505000000000006 0.0" Properties=species:S:1:pos:R:3 energy=-32616.95724905803 Z=14.0 period=3.0 IP=-7.75769996643 EA=-0.992999970913 E_HOMO=-4.16300010681 E_LUMO=0.439999997616 r_s=0.9399999976160001 r_p=1.12999999523 r_d=1.88999998569 pbc="T T T"
Ge       0.00000000       0.00000000       0.00000000 
Si       1.37525000       1.37525000       1.37525000 
2
Lattice="0.0 3.0140000000000002 3.0140000000000002 3.0140000000000002 0.0 3.0140000000000002 3.0140000000000002 3.0140000000000002 0.0" Properties=species:S:1:pos:R:3 energy=-111895.92130234063 Z=33.0 period=4.0 IP=-9.26189994812 EA=-1.8392000198400003 E_HOMO=-5.34100008011 E_LUMO=0.0640000030398 r_s=0.850000023842 r_p=1.03999996185 r_d=2.0199999809299998 pbc="T T T"
In       0.00000000       0.00000000       0.00000000 
As       1.50700000       1.50700000       1.50700000 
2
Lattice="0.0 2.4715 2.4715 2.4715 0.0 2.4715 2.4715 2.4715 0.0" Properties=species:S:1:pos:R:3 energy=-81730.86850504993 Z=7.0 period=2.0 IP=-13.5852003098 EA=-1.86749994755 E_HOMO=-7.2389998436 E_LUMO=3.0569999218 r_s=0.540000021458 r_p=0.509999990463 r_d=1.53999996185 pbc="T T T"
In       0.00000000       0.00000000       0.00000000 
N       1.23575000       1.23575000       1.23575000 
2
Lattice="0.0 2.9150000000000005 2.9150000000000005 2.9150000000000005 0.0 2.9150000000000005 2.9150000000000005 2.9150000000000005 0.0" Properties=species:S:1:pos:R:3 energy=-85636.59118980984 Z=15.0 period=3.0 IP=-9.75059986115 EA=-1.9199999570800002 E_HOMO=-5.59600019455 E_LUMO=0.18299999833099997 r_s=0.829999983311 r_p=0.97000002861 r_d=1.76999998093 pbc="T T T"
In       0.00000000       0.00000000       0.00000000 
P       1.45750000       1.45750000       1.45750000 
2
Lattice="0.0 3.227 3.227 3.227 0.0 3.227 3.227 3.227 0.0" Properties=species:S:1:pos:R:3 energy=-170340.1816661715 Z=51.0 period=5.0 IP=-8.46829986572 EA=-1.84669995308 E_HOMO=-4.99100017548 E_LUMO=0.104999996722 r_s=1.0 r_p=1.23000001907 r_d=2.0599999427799998 pbc="T T T"
In       0.00000000       0.00000000       0.00000000 
Sb       1.61350000       1.61350000       1.61350000 
2
Lattice="0.0 3.5705000000000005 3.5705000000000005 3.5705000000000005 0.0 3.5705000000000005 3.5705000000000005 3.5705000000000005 0.0" Properties=species:S:1:pos:R:3 energy=-43846.06201009732 Z=35.0 period=4.0 IP=-12.649600029 EA=-3.73930001259 E_HOMO=-8.001000404360001 E_LUMO=0.7080000042919999 r_s=0.75 r_p=0.879999995232 r_d=1.87000000477 pbc="T T T"
K       0.00000000       0.00000000       0.00000000 
Br       1.78525000       1.78525000       1.78525000 
2
Lattice="0.0 3.3865000000000003 3.3865000000000003 3.3865000000000003 0.0 3.3865000000000003 3.3865000000000003 3.3865000000000003 0.0" Properties=species:S:1:pos:R:3 energy=-14462.280011004648 Z=17.0 period=3.0 IP=-13.9018001556 EA=-3.9707999229400004 E_HOMO=-8.699999809269999 E_LUMO=0.574000000954 r_s=0.6800000071529999 r_p=0.7599999904629999 r_d=1.6699999570800002 pbc="T T T"
K       0.00000000       0.00000000       0.00000000 
Cl       1.69325000       1.69325000       1.69325000 
2
Lattice="0.0 2.8485 2.8485 2.8485 0.0 2.8485 2.8485 2.8485 0.0" Properties=species:S:1:pos:R:3 energy=-9542.631470961054 Z=9.0 period=2.0 IP=-19.4043006897 EA=-4.27349996567 E_HOMO=-11.2939996719 E_LUMO=1.25100004673 r_s=0.409999996424 r_p=0.37000000476800005 r_d=1.42999994755 pbc="T T T"
K       0.00000000       0.00000000       0.00000000 
F       1.42425000       1.42425000       1.42425000 
2
Lattice="0.0 3.823 3.823 3.823 0.0 3.823 3.823 3.823 0.0" Properties=species:S:1:pos:R:3 energy=-106403.78285770351 Z=53.0 period=5.0 IP=-11.2571001053 EA=-3.5134999752 E_HOMO=-7.2360000610399995 E_LUMO=0.212999999523 r_s=0.899999976158 r_p=1.07000005245 r_d=1.7200000286099997 pbc="T T T"
K       0.00000000       0.00000000       0.00000000 
I       1.91150000       1.91150000       1.91150000 
2
Lattice="0.0 2.8440000000000003 2.8440000000000003 2.8440000000000003 0.0 2.8440000000000003 2.8440000000000003 2.8440000000000003 0.0" Properties=species:S:1:pos:R:3 energy=-35758.22129047253 Z=35.0 period=4.0 IP=-12.649600029 EA=-3.73930001259 E_HOMO=-8.001000404360001 E_LUMO=0.7080000042919999 r_s=0.75 r_p=0.879999995232 r_d=1.87000000477 pbc="T T T"
Li       0.00000000       0.00000000       0.00000000 
Br       1.42200000       1.42200000       1.42200000 
2
Lattice="0.0 2.665 2.665 2.665 0.0 2.665 2.665 2.665 0.0" Properties=species:S:1:pos:R:3 energy=-6374.504439828846 Z=17.0 period=3.0 IP=-13.9018001556 EA=-3.9707999229400004 E_HOMO=-8.699999809269999 E_LUMO=0.574000000954 r_s=0.6800000071529999 r_p=0.7599999904629999 r_d=1.6699999570800002 pbc="T T T"
Li       0.00000000       0.00000000       0.00000000 
Cl       1.33250000       1.33250000       1.33250000 
2
Lattice="0.0 2.106 2.106 2.106 0.0 2.106 2.106 2.106 0.0" Properties=species:S:1:pos:R:3 energy=-1455.1827425371428 Z=9.0 period=2.0 IP=-19.4043006897 EA=-4.27349996567 E_HOMO=-11.2939996719 E_LUMO=1.25100004673 r_s=0.409999996424 r_p=0.37000000476800005 r_d=1.42999994755 pbc="T T T"
Li       0.00000000       0.00000000       0.00000000 
F       1.05300000       1.05300000       1.05300000 
2
Lattice="0.0 3.1045 3.1045 3.1045 0.0 3.1045 3.1045 3.1045 0.0" Properties=species:S:1:pos:R:3 energy=-98315.88338153038 Z=53.0 period=5.0 IP=-11.2571001053 EA=-3.5134999752 E_HOMO=-7.2360000610399995 E_LUMO=0.212999999523 r_s=0.899999976158 r_p=1.07000005245 r_d=1.7200000286099997 pbc="T T T"
Li       0.00000000       0.00000000       0.00000000 
I       1.55225000       1.55225000       1.55225000 
2
Lattice="0.0 2.2595 2.2595 2.2595 0.0 2.2595 2.2595 2.2595 0.0" Properties=species:S:1:pos:R:3 energy=-3736.8424702157927 Z=8.0 period=2.0 IP=-16.433200836199997 EA=-3.00589990616 E_HOMO=-9.19699954987 E_LUMO=2.54099988937 r_s=0.460000008345 r_p=0.430000007153 r_d=2.22000002861 pbc="T T T"
Mg       0.00000000       0.00000000       0.00000000 
O       1.12975000       1.12975000       1.12975000 
2
Lattice="0.0 2.799 2.799 2.799 0.0 2.799 2.799 2.799 0.0" Properties=species:S:1:pos:R:3 energy=-8141.506683538365 Z=16.0 period=3.0 IP=-11.795100212100001 EA=-2.8448998928099996 E_HOMO=-7.105999946589999 E_LUMO=0.64200001955 r_s=0.7400000095370001 r_p=0.850000023842 r_d=2.36999988556 pbc="T T T"
Mg       0.00000000       0.00000000       0.00000000 
S       1.39950000       1.39950000       1.39950000 
2
Lattice="0.0 2.938 2.938 2.938 0.0 2.938 2.938 2.938 0.0" Properties=species:S:1:pos:R:3 energy=-35947.88472904348 Z=34.0 period=4.0 IP=-10.9460000992 EA=-2.7509999275200006 E_HOMO=-6.65399980545 E_LUMO=1.31599998474 r_s=0.800000011921 r_p=0.949999988079 r_d=2.18000006676 pbc="T T T"
Mg       0.00000000       0.00000000       0.00000000 
Se       1.46900000       1.46900000       1.46900000 
2
Lattice="0.0 3.186 3.186 3.186 0.0 3.186 3.186 3.186 0.0" Properties=species:S:1:pos:R:3 energy=-96435.23376243205 Z=52.0 period=5.0 IP=-9.86670017242 EA=-2.66599988937 E_HOMO=-6.10900020599 E_LUMO=0.09899999946360001 r_s=0.9399999976160001 r_p=1.1399999856899998 r_d=1.8300000429199998 pbc="T T T"
Mg       0.00000000       0.00000000       0.00000000 
Te       1.59300000       1.59300000       1.59300000 
2
Lattice="0.0 3.189 3.189 3.189 0.0 3.189 3.189 3.189 0.0" Properties=species:S:1:pos:R:3 energy=-37858.99965472755 Z=35.0 period=4.0 IP=-12.649600029 EA=-3.73930001259 E_HOMO=-8.001000404360001 E_LUMO=0.7080000042919999 r_s=0.75 r_p=0.879999995232 r_d=1.87000000477 pbc="T T T"
Na       0.00000000       0.00000000       0.00000000 
Br       1.59450000       1.59450000       1.59450000 
2
Lattice="0.0 3.0155000000000003 3.0155000000000003 3.0155000000000003 0.0 3.0155000000000003 3.0155000000000003 3.0155000000000003 0.0" Properties=species:S:1:pos:R:3 energy=-8475.24044242147 Z=17.0 period=3.0 IP=-13.9018001556 EA=-3.9707999229400004 E_HOMO=-8.699999809269999 E_LUMO=0.574000000954 r_s=0.6800000071529999 r_p=0.7599999904629999 r_d=1.6699999570800002 pbc="T T T"
Na       0.00000000       0.00000000       0.00000000 
Cl       1.50775000       1.50775000       1.50775000 
2
Lattice="0.0 2.4825 2.4825 2.4825 0.0 2.4825 2.4825 2.4825 0.0" Properties=species:S:1:pos:R:3 energy=-3555.697617887323 Z=9.0 period=2.0 IP=-19.4043006897 EA=-4.27349996567 E_HOMO=-11.2939996719 E_LUMO=1.25100004673 r_s=0.409999996424 r_p=0.37000000476800005 r_d=1.42999994755 pbc="T T T"
Na       0.00000000       0.00000000       0.00000000 
F       1.24125000       1.24125000       1.24125000 
2
Lattice="0.0 3.446 3.446 3.446 0.0 3.446 3.446 3.446 0.0" Properties=species:S:1:pos:R:3 energy=-100416.70139304109 Z=53.0 period=5.0 IP=-11.2571001053 EA=-3.5134999752 E_HOMO=-7.2360000610399995 E_LUMO=0.212999999523 r_s=0.899999976158 r_p=1.07000005245 r_d=1.7200000286099997 pbc="T T T"
Na       0.00000000       0.00000000       0.00000000 
I       1.72300000       1.72300000       1.72300000 
2
Lattice="0.0 3.7255 3.7255 3.7255 0.0 3.7255 3.7255 3.7255 0.0" Properties=species:S:1:pos:R:3 energy=-76473.52557213472 Z=35.0 period=4.0 IP=-12.649600029 EA=-3.73930001259 E_HOMO=-8.001000404360001 E_LUMO=0.7080000042919999 r_s=0.75 r_p=0.879999995232 r_d=1.87000000477 pbc="T T T"
Rb       0.00000000       0.00000000       0.00000000 
Br       1.86275000       1.86275000       1.86275000 
2
Lattice="0.0 3.553 3.553 3.553 0.0 3.553 3.553 3.553 0.0" Properties=species:S:1:pos:R:3 energy=-47089.732419464555 Z=17.0 period=3.0 IP=-13.9018001556 EA=-3.9707999229400004 E_HOMO=-8.699999809269999 E_LUMO=0.574000000954 r_s=0.6800000071529999 r_p=0.7599999904629999 r_d=1.6699999570800002 pbc="T T T"
Rb       0.00000000       0.00000000       0.00000000 
Cl       1.77650000       1.77650000       1.77650000 
2
Lattice="0.0 3.006 3.006 3.006 0.0 3.006 3.006 3.006 0.0" Properties=species:S:1:pos:R:3 energy=-42170.04806322617 Z=9.0 period=2.0 IP=-19.4043006897 EA=-4.27349996567 E_HOMO=-11.2939996719 E_LUMO=1.25100004673 r_s=0.409999996424 r_p=0.37000000476800005 r_d=1.42999994755 pbc="T T T"
Rb       0.00000000       0.00000000       0.00000000 
F       1.50300000       1.50300000       1.50300000 
2
Lattice="0.0 3.9885 3.9885 3.9885 0.0 3.9885 3.9885 3.9885 0.0" Properties=species:S:1:pos:R:3 energy=-139031.25821177967 Z=53.0 period=5.0 IP=-11.2571001053 EA=-3.5134999752 E_HOMO=-7.2360000610399995 E_LUMO=0.212999999523 r_s=0.899999976158 r_p=1.07000005245 r_d=1.7200000286099997 pbc="T T T"
Rb       0.00000000       0.00000000       0.00000000 
I       1.99425000       1.99425000       1.99425000 
2
Lattice="0.0 2.7015 2.7015 2.7015 0.0 2.7015 2.7015 2.7015 0.0" Properties=species:S:1:pos:R:3 energy=-7874.176328141364 Z=14.0 period=3.0 IP=-7.75769996643 EA=-0.992999970913 E_HOMO=-4.16300010681 E_LUMO=0.439999997616 r_s=0.9399999976160001 r_p=1.12999999523 r_d=1.88999998569 pbc="T T T"
Si       0.00000000       0.00000000       0.00000000 
Si       1.35075000       1.35075000       1.35075000 
2
Lattice="0.0 2.1655 2.1655 2.1655 0.0 2.1655 2.1655 2.1655 0.0" Properties=species:S:1:pos:R:3 energy=-4451.95462247301 Z=6.0 period=2.0 IP=-10.851699829100001 EA=-0.87239998579 E_HOMO=-5.415999889369999 E_LUMO=1.99199998379 r_s=0.6399999856949999 r_p=0.629999995232 r_d=1.62999999523 pbc="T T T"
Si       0.00000000       0.00000000       0.00000000 
C       1.08275000       1.08275000       1.08275000 
2
Lattice="0.0 3.238 3.238 3.238 0.0 3.238 3.238 3.238 0.0" Properties=species:S:1:pos:R:3 energy=-170215.36755613738 Z=50.0 period=5.0 IP=-7.04279994965 EA=-1.03919994831 E_HOMO=-3.86599993706 E_LUMO=0.008000000379979999 r_s=1.05999994278 r_p=1.34000003338 r_d=2.02999997139 pbc="T T T"
Sn       0.00000000       0.00000000       0.00000000 
Sn       1.61900000       1.61900000       1.61900000 
2